Program Version,EnergyPlus, Version 8.9.0-497bb3e71c, YMD=2018.03.11 10:14
1,5,Environment Title[],Latitude[deg],Longitude[deg],Time Zone[],Elevation[m]
2,8,Day of Simulation[],Month[],Day of Month[],DST Indicator[1=yes 0=no],Hour[],StartMinute[],EndMinute[],DayType
3,5,Cumulative Day of Simulation[],Month[],Day of Month[],DST Indicator[1=yes 0=no],DayType  ! When Daily Report Variables Requested
4,2,Cumulative Days of Simulation[],Month[]  ! When Monthly Report Variables Requested
5,1,Cumulative Days of Simulation[] ! When Run Period Report Variables Requested
6,1,Calendar Year of Simulation[] ! When Annual Report Variables Requested
7,1,Environment,Site Outdoor Air Humidity Ratio [kgWater/kgDryAir] !Hourly
8,1,Environment,Site Outdoor Air Barometric Pressure [Pa] !Hourly
9,1,Environment,Site Wind Speed [m/s] !Hourly
47,1,LIVING,Zone Outdoor Air Drybulb Temperature [C] !Hourly
252,1,LIVING,Zone Mean Air Temperature [C] !Hourly
253,1,LIVING,Zone Mean Air Humidity Ratio [kgWater/kgDryAir] !Hourly
340,1,LIVING,Zone Air Relative Humidity [%] !Hourly
519,11,RESIDENTIAL FURNACE GAS HEATING COIL,Heating Coil Heating Energy [J] !RunPeriod [Value,Min,Month,Day,Hour,Minute,Max,Month,Day,Hour,Minute]
596,11,RESIDENTIAL CENTRAL AC COOLING COIL,Cooling Coil Sensible Cooling Energy [J] !RunPeriod [Value,Min,Month,Day,Hour,Minute,Max,Month,Day,Hour,Minute]
597,11,RESIDENTIAL CENTRAL AC COOLING COIL,Cooling Coil Latent Cooling Energy [J] !RunPeriod [Value,Min,Month,Day,Hour,Minute,Max,Month,Day,Hour,Minute]
864,11,WATER USE CONNECTIONS 1,Water Use Connections Plant Hot Water Energy [J] !RunPeriod [Value,Min,Month,Day,Hour,Minute,Max,Month,Day,Hour,Minute]
1104,1,RES INFIL_1 BATH EXHAUST SCHEDULE,Schedule Value [] !Hourly
1105,1,RES INFIL_1 CLOTHES DRYER EXHAUST SCHEDULE,Schedule Value [] !Hourly
1106,1,RES INFIL_1 RANGE HOOD SCHEDULE,Schedule Value [] !Hourly
1107,1,RES NV_1 AVAIL SCHEDULE,Schedule Value [] !Hourly
1108,1,RES NV_1 TEMP SCHEDULE,Schedule Value [] !Hourly
1109,1,RESIDENTIAL CEILING FAN SCHEDULE,Schedule Value [] !Hourly
1110,1,ALWAYS ON DISCRETE,Schedule Value [] !Hourly
End of Data Dictionary
1,RUN PERIOD,  39.83,-104.65,  -7.00,1650.00
2,1, 1, 1, 0, 1, 0.00,60.00,Thursday
7,0.0007900529195083872
8,83700.0
9,0.0
47,-17.993887191333309
252,19.072082657725664
253,0.0023421548310225664
1104,0.0
1105,0.0
1106,0.0
1107,1.0
1108,25.0
1109,1.0
1110,1.0
340,14.222323624650448
2,1, 1, 1, 0, 2, 0.00,60.00,Thursday
7,0.0008821433256595779
8,83500.0
9,0.0
47,-16.59388719133331
252,19.037626231070165
253,0.0023143608276231404
1104,0.0
1105,0.0
1106,0.0
1107,1.0
1108,25.0
1109,1.0
1110,1.0
340,14.051426007548221
2,1, 1, 1, 0, 3, 0.00,60.00,Thursday
7,0.0010208919153051238
8,83400.0
9,0.0
47,-15.29388719133331
252,19.114342860347194
253,0.0023123535823454295
1104,0.0
1105,0.0
1106,0.0
1107,1.0
1108,25.0
1109,1.0
1110,1.0
340,13.955533175484794
2,1, 1, 1, 0, 4, 0.00,60.00,Thursday
7,0.0011789686367221452
8,83100.0
9,0.0
47,-14.39388719133331
252,19.182358866916546
253,0.002364707075747251
1104,0.0
1105,0.0
1106,0.0
1107,1.0
1108,25.0
1109,1.0
1110,1.0
340,14.158779722017228
2,1, 1, 1, 0, 5, 0.00,60.00,Thursday
7,0.0012758496249545763
8,83400.0
9,0.0
47,-12.99388719133331
252,19.24567234450108
253,0.002420525592929478
1104,0.0
1105,0.0
1106,0.0
1107,1.0
1108,25.0
1109,1.0
1110,1.0
340,14.48673655900336
2,1, 1, 1, 0, 6, 0.00,60.00,Thursday
7,0.0015577134825634503
8,83000.0
9,0.0
47,-11.093887191333309
252,19.31045891170631
253,0.0025406334355538206
1104,0.0
1105,0.0
1106,0.0
1107,1.0
1108,25.0
1109,1.0
1110,1.0
340,15.068816518886086
2,1, 1, 1, 0, 7, 0.00,60.00,Thursday
7,0.0016867159050986186
8,82900.0
9,0.0
47,-9.693887191333309
252,19.384378746384138
253,0.0024212098050323397
1104,1.0
1105,0.0
1106,0.0
1107,1.0
1108,25.0
1109,1.0
1110,1.0
340,14.28002340734267
2,1, 1, 1, 0, 8, 0.00,60.00,Thursday
7,0.0019662875066010774
8,82800.0
9,1.4
47,-7.6938871913333088
252,19.42098310935881
253,0.0028811517389606144
1104,0.0
1105,0.0
1106,0.0
1107,1.0
1108,25.0
1109,1.0
1110,1.0
340,16.921014101437775
2,1, 1, 1, 0, 9, 0.00,60.00,Thursday
7,0.002240381823690946
8,82900.0
9,1.3
47,-5.893887191333309
252,19.46770447999083
253,0.002982243878103979
1104,0.0
1105,0.0
1106,0.0
1107,1.0
1108,25.0
1109,1.0
1110,1.0
340,17.482286192716555
2,1, 1, 1, 0,10, 0.00,60.00,Thursday
7,0.0025375255411263016
8,82700.0
9,1.7
47,-2.193887191333309
252,19.568361722286068
253,0.003212415782788139
1104,0.0
1105,0.0
1106,0.0
1107,1.0
1108,25.0
1109,1.0
1110,1.0
340,18.662043849860319
2,1, 1, 1, 0,11, 0.00,60.00,Thursday
7,0.0025627953819398
8,82400.0
9,1.7
47,1.4061128086666915
252,19.66735745551716
253,0.003363335704663421
1104,0.0
1105,1.0
1106,0.0
1107,1.0
1108,25.0
1109,1.0
1110,1.0
340,19.34392247993776
2,1, 1, 1, 0,12, 0.00,60.00,Thursday
7,0.0023812805279191464
8,82300.0
9,4.6
47,2.806112808666691
252,19.704672237663777
253,0.0032617867008262514
1104,0.0
1105,0.0
1106,0.0
1107,1.0
1108,25.0
1109,1.0
1110,1.0
340,18.696811654532568
2,1, 1, 1, 0,13, 0.00,60.00,Thursday
7,0.0021572495768384786
8,82300.0
9,7.2
47,4.406112808666692
252,19.74270456018848
253,0.0030287119668301256
1104,0.0
1105,0.0
1106,0.0
1107,1.0
1108,25.0
1109,1.0
1110,1.0
340,17.326300894762029
2,1, 1, 1, 0,14, 0.00,60.00,Thursday
7,0.002175373442187611
8,82200.0
9,8.2
47,3.306112808666691
252,19.709475105006445
253,0.0029164711690917537
1104,0.0
1105,0.0
1106,0.0
1107,1.0
1108,25.0
1109,1.0
1110,1.0
340,16.701372627245037
2,1, 1, 1, 0,15, 0.00,60.00,Thursday
7,0.00214664894324141
8,82200.0
9,7.7
47,3.906112808666691
252,19.7130639093549
253,0.0028652862651695296
1104,0.0
1105,0.0
1106,0.0
1107,1.0
1108,25.0
1109,1.0
1110,1.0
340,16.405944974502768
2,1, 1, 1, 0,16, 0.00,60.00,Thursday
7,0.0019592080809646514
8,82100.0
9,6.2
47,2.2061128086666916
252,19.657145899989513
253,0.002762760575343097
1104,0.0
1105,0.0
1106,0.0
1107,1.0
1108,25.0
1109,1.0
1110,1.0
340,15.857209454951676
2,1, 1, 1, 0,17, 0.00,60.00,Thursday
7,0.0023914868104691346
8,82000.0
9,3.6
47,-0.5938871913333086
252,19.559494961909974
253,0.0030556360165867387
1104,0.0
1105,0.0
1106,0.0
1107,1.0
1108,25.0
1109,1.0
1110,1.0
340,17.61518712054759
2,1, 1, 1, 0,18, 0.00,60.00,Thursday
7,0.002400630504535148
8,82100.0
9,6.2
47,-2.193887191333309
252,19.50218956344968
253,0.0031310847789118667
1104,0.0
1105,0.0
1106,1.0
1107,1.0
1108,25.0
1109,1.0
1110,1.0
340,18.13447366885431
2,1, 1, 1, 0,19, 0.00,60.00,Thursday
7,0.0020766385637436097
8,82100.0
9,5.7
47,-4.993887191333308
252,19.391834513271286
253,0.0034676542677287635
1104,0.0
1105,0.0
1106,0.0
1107,1.0
1108,25.0
1109,1.0
1110,1.0
340,20.21124743911172
2,1, 1, 1, 0,20, 0.00,60.00,Thursday
7,0.0018849892779124018
8,82100.0
9,5.2
47,-5.593887191333308
252,19.352592756257196
253,0.0034089995136945777
1104,0.0
1105,0.0
1106,0.0
1107,1.0
1108,25.0
1109,1.0
1110,1.0
340,19.919862474389473
2,1, 1, 1, 0,21, 0.00,60.00,Thursday
7,0.0017797201039779479
8,82000.0
9,2.1
47,-6.093887191333308
252,19.34385240698084
253,0.0034007862626295648
1104,0.0
1105,0.0
1106,0.0
1107,1.0
1108,25.0
1109,1.0
1110,1.0
340,19.858728304168009
2,1, 1, 1, 0,22, 0.00,60.00,Thursday
7,0.0017775461620338847
8,82100.0
9,2.6
47,-6.093887191333308
252,19.361045139383689
253,0.003448464546170253
1104,0.0
1105,0.0
1106,0.0
1107,1.0
1108,25.0
1109,1.0
1110,1.0
340,20.13859641428352
2,1, 1, 1, 0,23, 0.00,60.00,Thursday
7,0.0015232452444255954
8,82300.0
9,4.1
47,-6.093887191333308
252,19.38185728472518
253,0.003285825656421584
1104,0.0
1105,0.0
1106,0.0
1107,1.0
1108,25.0
1109,1.0
1110,1.0
340,19.215640058978186
2,1, 1, 1, 0,24, 0.00,60.00,Thursday
7,0.0015293264799179036
8,81900.0
9,8.8
47,-4.993887191333308
252,19.431017693851126
253,0.003089093423496054
1104,0.0
1105,0.0
1106,0.0
1107,1.0
1108,25.0
1109,1.0
1110,1.0
340,17.928074921470999
2,2, 1, 2, 0, 1, 0.00,60.00,Friday
7,0.0014680090389020964
8,81900.0
9,8.8
47,-4.993887191333308
252,19.45047609810917
253,0.003008407998388283
1104,0.0
1105,0.0
1106,0.0
1107,1.0
1108,25.0
1109,1.0
1110,1.0
340,17.440931029203538
2,2, 1, 2, 0, 2, 0.00,60.00,Friday
7,0.0013344405741135323
8,82000.0
9,7.2
47,-5.593887191333308
252,19.44178561373289
253,0.0028633474810018054
1104,0.0
1105,0.0
1106,0.0
1107,1.0
1108,25.0
1109,1.0
1110,1.0
340,16.633067892732169
2,2, 1, 2, 0, 3, 0.00,60.00,Friday
7,0.001253492936868907
8,81900.0
9,7.2
47,-4.993887191333308
252,19.459271618003308
253,0.0027262678653927569
1104,0.0
1105,0.0
1106,0.0
1107,1.0
1108,25.0
1109,1.0
1110,1.0
340,15.803741990700554
2,2, 1, 2, 0, 4, 0.00,60.00,Friday
7,0.0012678777009577935
8,81900.0
9,6.7
47,-6.6938871913333088
252,19.417772289151029
253,0.002630587561539265
1104,0.0
1105,0.0
1106,0.0
1107,1.0
1108,25.0
1109,1.0
1110,1.0
340,15.290823717086873
2,2, 1, 2, 0, 5, 0.00,60.00,Friday
7,0.0012411706929133452
8,82400.0
9,3.6
47,-5.593887191333308
252,19.44076140153011
253,0.0025792427212571356
1104,0.0
1105,0.0
1106,0.0
1107,1.0
1108,25.0
1109,1.0
1110,1.0
340,15.063616625137727
2,2, 1, 2, 0, 6, 0.00,60.00,Friday
7,0.001251833295380643
8,81900.0
9,3.1
47,-6.093887191333308
252,19.434560240113087
253,0.0025703975420281247
1104,0.0
1105,0.0
1106,0.0
1107,1.0
1108,25.0
1109,1.0
1110,1.0
340,14.926834476767115
2,2, 1, 2, 0, 7, 0.00,60.00,Friday
7,0.0011904699506903492
8,81900.0
9,3.1
47,-4.393887191333309
252,19.499729440438196
253,0.002254573534941332
1104,1.0
1105,0.0
1106,0.0
1107,1.0
1108,25.0
1109,1.0
1110,1.0
340,13.046412928847087
2,2, 1, 2, 0, 8, 0.00,60.00,Friday
7,0.0012510706447046814
8,82000.0
9,1.5
47,-2.7938871913333087
252,19.530786745244826
253,0.0024580895183482244
1104,0.0
1105,0.0
1106,0.0
1107,1.0
1108,25.0
1109,1.0
1110,1.0
340,14.209325097642516
2,2, 1, 2, 0, 9, 0.00,60.00,Friday
7,0.0014476314076101044
8,82300.0
9,2.1
47,-1.6938871913333085
252,19.561291761297814
253,0.0023953844975615836
1104,0.0
1105,0.0
1106,0.0
1107,1.0
1108,25.0
1109,1.0
1110,1.0
340,13.87258963388747
2,2, 1, 2, 0,10, 0.00,60.00,Friday
7,0.001625860099397257
8,82400.0
9,2.1
47,2.2061128086666916
252,19.671545465432375
253,0.0024335960204171917
1104,0.0
1105,0.0
1106,0.0
1107,1.0
1108,25.0
1109,1.0
1110,1.0
340,14.013828820586476
2,2, 1, 2, 0,11, 0.00,60.00,Friday
7,0.001721383574473831
8,82400.0
9,2.6
47,5.606112808666691
252,19.77033825107424
253,0.002552626421165
1104,0.0
1105,1.0
1106,0.0
1107,1.0
1108,25.0
1109,1.0
1110,1.0
340,14.60659033655803
2,2, 1, 2, 0,12, 0.00,60.00,Friday
7,0.0012938736167089427
8,82400.0
9,2.1
47,8.906112808666692
252,19.86129724758143
253,0.0022993333095809246
1104,0.0
1105,0.0
1106,0.0
1107,1.0
1108,25.0
1109,1.0
1110,1.0
340,13.088470006021194
2,2, 1, 2, 0,13, 0.00,60.00,Friday
7,0.001427780665668024
8,82400.0
9,2.6
47,9.406112808666692
252,19.87418850926729
253,0.0023013104812218078
1104,0.0
1105,0.0
1106,0.0
1107,1.0
1108,25.0
1109,1.0
1110,1.0
340,13.089243944169106
2,2, 1, 2, 0,14, 0.00,60.00,Friday
7,0.0016982862647897939
8,82300.0
9,2.6
47,9.406112808666692
252,19.870048403015259
253,0.002437643540943798
1104,0.0
1105,0.0
1106,0.0
1107,1.0
1108,25.0
1109,1.0
1110,1.0
340,13.848365775571969
2,2, 1, 2, 0,15, 0.00,60.00,Friday
7,0.0023288222482894889
8,82300.0
9,3.1
47,10.00611280866669
252,19.882666061252729
253,0.0028309881444868007
1104,0.0
1105,0.0
1106,0.0
1107,1.0
1108,25.0
1109,1.0
1110,1.0
340,16.060212907933744
2,2, 1, 2, 0,16, 0.00,60.00,Friday
7,0.0020060060358028945
8,82300.0
9,3.1
47,7.8061128086666919
252,19.812145583433904
253,0.00277441977846106
1104,0.0
1105,0.0
1106,0.0
1107,1.0
1108,25.0
1109,1.0
1110,1.0
340,15.80979886767876
2,2, 1, 2, 0,17, 0.00,60.00,Friday
7,0.0019393526558002066
8,82100.0
9,2.6
47,6.706112808666692
252,19.765350919306195
253,0.002802920379579797
1104,0.0
1105,0.0
1106,0.0
1107,1.0
1108,25.0
1109,1.0
1110,1.0
340,15.978988466466693
2,2, 1, 2, 0,18, 0.00,60.00,Friday
7,0.0019892992189000167
8,82100.0
9,3.6
47,5.006112808666692
252,19.70575968704699
253,0.0027830624218272584
1104,0.0
1105,0.0
1106,1.0
1107,1.0
1108,25.0
1109,1.0
1110,1.0
340,15.92508151745769
2,2, 1, 2, 0,19, 0.00,60.00,Friday
7,0.001956798128946613
8,82300.0
9,3.6
47,1.1061128086666917
252,19.549891679283108
253,0.0034627263476349979
1104,0.0
1105,0.0
1106,0.0
1107,1.0
1108,25.0
1109,1.0
1110,1.0
340,20.033878842458983
2,2, 1, 2, 0,20, 0.00,60.00,Friday
7,0.001995061828540745
8,82200.0
9,3.6
47,0.006112808666691415
252,19.476671922865714
253,0.0035494580552010628
1104,0.0
1105,0.0
1106,0.0
1107,1.0
1108,25.0
1109,1.0
1110,1.0
340,20.601523968425498
2,2, 1, 2, 0,21, 0.00,60.00,Friday
7,0.001853206380574381
8,82200.0
9,4.1
47,-1.6938871913333085
252,19.418730260610525
253,0.0034508783978253675
1104,0.0
1105,0.0
1106,0.0
1107,1.0
1108,25.0
1109,1.0
1110,1.0
340,20.104851369321314
2,2, 1, 2, 0,22, 0.00,60.00,Friday
7,0.0016106113482938503
8,82100.0
9,2.1
47,-1.0938871913333086
252,19.454048307527754
253,0.0034036745141004557
1104,0.0
1105,0.0
1106,0.0
1107,1.0
1108,25.0
1109,1.0
1110,1.0
340,19.763740365760975
2,2, 1, 2, 0,23, 0.00,60.00,Friday
7,0.0014489606977723525
8,82400.0
9,0.0
47,0.6061128086666914
252,19.54641704178453
253,0.003245638774004786
1104,0.0
1105,0.0
1106,0.0
1107,1.0
1108,25.0
1109,1.0
1110,1.0
340,18.811377581943327
2,2, 1, 2, 0,24, 0.00,60.00,Friday
7,0.0014852911409678346
8,82100.0
9,2.6
47,0.006112808666691415
252,19.555403189935875
253,0.003124475615734812
1104,0.0
1105,0.0
1106,0.0
1107,1.0
1108,25.0
1109,1.0
1110,1.0
340,18.03660904977658
2,3, 1, 3, 0, 1, 0.00,60.00,Saturday
7,0.001457500543868354
8,82100.0
9,3.6
47,-0.5938871913333086
252,19.548200199952754
253,0.003016850683104767
1104,0.0
1105,0.0
1106,0.0
1107,1.0
1108,25.0
1109,1.0
1110,1.0
340,17.426127799680545
2,3, 1, 3, 0, 2, 0.00,60.00,Saturday
7,0.001457500543868354
8,82100.0
9,5.2
47,-0.5938871913333086
252,19.555917973831414
253,0.0029113712815820684
1104,0.0
1105,0.0
1106,0.0
1107,1.0
1108,25.0
1109,1.0
1110,1.0
340,16.81162492220141
2,3, 1, 3, 0, 3, 0.00,60.00,Saturday
7,0.0014813459927190882
8,82200.0
9,5.2
47,-1.0938871913333086
252,19.548567786349115
253,0.0028978423737921826
1104,0.0
1105,0.0
1106,0.0
1107,1.0
1108,25.0
1109,1.0
1110,1.0
340,16.76190344661319
2,3, 1, 3, 0, 4, 0.00,60.00,Saturday
7,0.001445870489396135
8,82400.0
9,5.7
47,-1.6938871913333085
252,19.534156574583759
253,0.0028168392421085337
1104,0.0
1105,0.0
1106,0.0
1107,1.0
1108,25.0
1109,1.0
1110,1.0
340,16.349761476058075
2,3, 1, 3, 0, 5, 0.00,60.00,Saturday
7,0.0014388694491940776
8,82800.0
9,6.2
47,-1.6938871913333085
252,19.53503543459857
253,0.00279658936018762
1104,0.0
1105,0.0
1106,0.0
1107,1.0
1108,25.0
1109,1.0
1110,1.0
340,16.31065947670359
2,3, 1, 3, 0, 6, 0.00,60.00,Saturday
7,0.0013897297335599493
8,82600.0
9,7.2
47,-1.0938871913333086
252,19.555876244276889
253,0.002716924499984172
1104,0.0
1105,0.0
1106,0.0
1107,1.0
1108,25.0
1109,1.0
1110,1.0
340,15.789300117716273
2,3, 1, 3, 0, 7, 0.00,60.00,Saturday
7,0.0014723686488445219
8,82700.0
9,5.7
47,-1.0938871913333086
252,19.575167307473323
253,0.0024332058625273005
1104,1.0
1105,0.0
1106,0.0
1107,1.0
1108,25.0
1109,1.0
1110,1.0
340,14.147059332856197
2,3, 1, 3, 0, 8, 0.00,60.00,Saturday
7,0.0015329507657114506
8,82800.0
9,6.7
47,-0.5938871913333086
252,19.573026929305514
253,0.002688136156923162
1104,0.0
1105,0.0
1106,0.0
1107,1.0
1108,25.0
1109,1.0
1110,1.0
340,15.64380478080021
2,3, 1, 3, 0, 9, 0.00,60.00,Saturday
7,0.001453997299339283
8,83000.0
9,4.6
47,3.306112808666691
252,19.683925732357236
253,0.002458754356710156
1104,0.0
1105,0.0
1106,0.0
1107,1.0
1108,25.0
1109,1.0
1110,1.0
340,14.25026320538197
2,3, 1, 3, 0,10, 0.00,60.00,Saturday
7,0.001568059695277626
8,83200.0
9,5.2
47,5.606112808666691
252,19.758908298350993
253,0.0023892280773991859
1104,0.0
1105,0.0
1106,0.0
1107,1.0
1108,25.0
1109,1.0
1110,1.0
340,13.817762624068737
2,3, 1, 3, 0,11, 0.00,60.00,Saturday
7,0.0022528855757041439
8,83500.0
9,1.5
47,6.106112808666691
252,19.773910599549695
253,0.0028804478381713285
1104,0.0
1105,1.0
1106,0.0
1107,1.0
1108,25.0
1109,1.0
1110,1.0
340,16.68988036877881
2,3, 1, 3, 0,12, 0.00,60.00,Saturday
7,0.001616514110486632
8,83300.0
9,7.7
47,6.706112808666692
252,19.78958825447768
253,0.0025306797737249698
1104,0.0
1105,0.0
1106,0.0
1107,1.0
1108,25.0
1109,1.0
1110,1.0
340,14.62219280747826
2,3, 1, 3, 0,13, 0.00,60.00,Saturday
7,0.0019736604311465877
8,83400.0
9,9.3
47,5.606112808666691
252,19.75567480174815
253,0.002552712115875866
1104,0.0
1105,0.0
1106,0.0
1107,1.0
1108,25.0
1109,1.0
1110,1.0
340,14.79782858326793
2,3, 1, 3, 0,14, 0.00,60.00,Saturday
7,0.0017131376280867179
8,83400.0
9,11.1
47,4.606112808666691
252,19.717933615466455
253,0.0023779800482720068
1104,0.0
1105,0.0
1106,0.0
1107,1.0
1108,25.0
1109,1.0
1110,1.0
340,13.821121280774563
2,3, 1, 3, 0,15, 0.00,60.00,Saturday
7,0.001725997373187881
8,83400.0
9,7.4
47,2.306112808666691
252,19.63456134538725
253,0.0024235404149244926
1104,0.0
1105,0.0
1106,0.0
1107,1.0
1108,25.0
1109,1.0
1110,1.0
340,14.15798301629026
2,3, 1, 3, 0,16, 0.00,60.00,Saturday
7,0.0016922447025396956
8,83500.0
9,6.7
47,-0.2938871913333086
252,19.533998219883967
253,0.002389656393900449
1104,0.0
1105,0.0
1106,0.0
1107,1.0
1108,25.0
1109,1.0
1110,1.0
340,14.065180478142694
2,3, 1, 3, 0,17, 0.00,60.00,Saturday
7,0.0014911409732731626
8,83600.0
9,4.6
47,-2.9938871913333089
252,19.42595941349759
253,0.0023242475002115197
1104,0.0
1105,0.0
1106,0.0
1107,1.0
1108,25.0
1109,1.0
1110,1.0
340,13.790358071538446
2,3, 1, 3, 0,18, 0.00,60.00,Saturday
7,0.0016249337365517598
8,83500.0
9,2.8
47,-5.793887191333308
252,19.325640551161994
253,0.0023799446084791216
1104,0.0
1105,0.0
1106,1.0
1107,1.0
1108,25.0
1109,1.0
1110,1.0
340,14.191020271500582
2,3, 1, 3, 0,19, 0.00,60.00,Saturday
7,0.0013675180492059016
8,83500.0
9,1.6
47,-5.593887191333308
252,19.297072857463424
253,0.0028124879528027646
1104,0.0
1105,0.0
1106,0.0
1107,1.0
1108,25.0
1109,1.0
1110,1.0
340,16.788336596568717
2,3, 1, 3, 0,20, 0.00,60.00,Saturday
7,0.0015885511650296453
8,83500.0
9,0.4
47,-7.1938871913333088
252,19.25310817416574
253,0.003066487842964758
1104,0.0
1105,0.0
1106,0.0
1107,1.0
1108,25.0
1109,1.0
1110,1.0
340,18.347281791374067
2,3, 1, 3, 0,21, 0.00,60.00,Saturday
7,0.0014073914052668763
8,83200.0
9,0.8
47,-8.79388719133331
252,19.21115879620735
253,0.0030120674557243024
1104,0.0
1105,0.0
1106,0.0
1107,1.0
1108,25.0
1109,1.0
1110,1.0
340,18.005535875354604
2,3, 1, 3, 0,22, 0.00,60.00,Saturday
7,0.0013145840617941217
8,83300.0
9,1.6
47,-9.89388719133331
252,19.193856006589966
253,0.003010909589746308
1104,0.0
1105,0.0
1106,0.0
1107,1.0
1108,25.0
1109,1.0
1110,1.0
340,18.0397241554459
2,3, 1, 3, 0,23, 0.00,60.00,Saturday
7,0.0012139964635374528
8,83600.0
9,1.5
47,-11.39388719133331
252,19.17293189490117
253,0.002896856983632176
1104,0.0
1105,0.0
1106,0.0
1107,1.0
1108,25.0
1109,1.0
1110,1.0
340,17.444799654511518
2,3, 1, 3, 0,24, 0.00,60.00,Saturday
7,0.0012718760753117082
8,83200.0
9,1.8
47,-12.39388719133331
252,19.163697343633424
253,0.002802020443450482
1104,0.0
1105,0.0
1106,0.0
1107,1.0
1108,25.0
1109,1.0
1110,1.0
340,16.80518236250257
2,4, 1, 4, 0, 1, 0.00,60.00,Sunday
7,0.0012503814519708354
8,83200.0
9,0.2
47,-13.49388719133331
252,19.15736516056017
253,0.002711000274815781
1104,0.0
1105,0.0
1106,0.0
1107,1.0
1108,25.0
1109,1.0
1110,1.0
340,16.268078179238885
2,4, 1, 4, 0, 2, 0.00,60.00,Sunday
7,0.000996671141190083
8,83200.0
9,0.0
47,-16.193887191333308
252,19.099337740814677
253,0.002489537118187451
1104,0.0
1105,0.0
1106,0.0
1107,1.0
1108,25.0
1109,1.0
1110,1.0
340,14.998542845244199
2,4, 1, 4, 0, 3, 0.00,60.00,Sunday
7,0.0009523068241433335
8,83200.0
9,1.5
47,-16.193887191333308
252,19.104435170172498
253,0.002395911628754869
1104,0.0
1105,0.0
1106,0.0
1107,1.0
1108,25.0
1109,1.0
1110,1.0
340,14.432118276868624
2,4, 1, 4, 0, 4, 0.00,60.00,Sunday
7,0.001043462771679202
8,83200.0
9,2.6
47,-14.693887191333309
252,19.16621784922723
253,0.0023805774586447825
1104,0.0
1105,0.0
1106,0.0
1107,1.0
1108,25.0
1109,1.0
1110,1.0
340,14.28497778439462
2,4, 1, 4, 0, 5, 0.00,60.00,Sunday
7,0.001060799214187855
8,83600.0
9,1.5
47,-14.193887191333309
252,19.205022734323145
253,0.0023702449169182148
1104,0.0
1105,0.0
1106,0.0
1107,1.0
1108,25.0
1109,1.0
1110,1.0
340,14.257057334243133
2,4, 1, 4, 0, 6, 0.00,60.00,Sunday
7,0.0010968301013608625
8,83400.0
9,1.5
47,-13.29388719133331
252,19.242407662999488
253,0.002378259757669785
1104,0.0
1105,0.0
1106,0.0
1107,1.0
1108,25.0
1109,1.0
1110,1.0
340,14.23765078210575
2,4, 1, 4, 0, 7, 0.00,60.00,Sunday
7,0.001074490384720581
8,83400.0
9,0.0
47,-11.79388719133331
252,19.314608955085494
253,0.0021226785383801954
1104,1.0
1105,0.0
1106,0.0
1107,1.0
1108,25.0
1109,1.0
1110,1.0
340,12.65574800284002
2,4, 1, 4, 0, 8, 0.00,60.00,Sunday
7,0.0013478573191768064
8,83300.0
9,0.0
47,-9.093887191333309
252,19.372140166574324
253,0.002451362012494319
1104,0.0
1105,0.0
1106,0.0
1107,1.0
1108,25.0
1109,1.0
1110,1.0
340,14.537978539436617
2,4, 1, 4, 0, 9, 0.00,60.00,Sunday
7,0.001551563844944264
8,83700.0
9,0.0
47,-5.893887191333309
252,19.46264364307402
253,0.0024276826214410546
1104,0.0
1105,0.0
1106,0.0
1107,1.0
1108,25.0
1109,1.0
1110,1.0
340,14.386018250578934
2,4, 1, 4, 0,10, 0.00,60.00,Sunday
7,0.0018357606437330618
8,83700.0
9,1.5
47,-0.4938871913333086
252,19.613680988602803
253,0.0025719875378537435
1104,0.0
1105,0.0
1106,0.0
1107,1.0
1108,25.0
1109,1.0
1110,1.0
340,15.09520526012279
2,4, 1, 4, 0,11, 0.00,60.00,Sunday
7,0.002083319524711242
8,83500.0
9,2.1
47,3.306112808666691
252,19.720048023136888
253,0.0028273109091519227
1104,0.0
1105,1.0
1106,0.0
1107,1.0
1108,25.0
1109,1.0
1110,1.0
340,16.43831445246819
2,4, 1, 4, 0,12, 0.00,60.00,Sunday
7,0.0022760136762949559
8,83600.0
9,0.0
47,3.806112808666691
252,19.73269423372639
253,0.0030332543477920379
1104,0.0
1105,0.0
1106,0.0
1107,1.0
1108,25.0
1109,1.0
1110,1.0
340,17.637192957375676
2,4, 1, 4, 0,13, 0.00,60.00,Sunday
7,0.0025647344646280948
8,83600.0
9,3.6
47,8.00611280866669
252,19.839105383269428
253,0.0032931411947956779
1104,0.0
1105,0.0
1106,0.0
1107,1.0
1108,25.0
1109,1.0
1110,1.0
340,19.014389757195127
2,4, 1, 4, 0,14, 0.00,60.00,Sunday
7,0.002772826277953846
8,83500.0
9,4.1
47,9.60611280866669
252,19.88142716414212
253,0.0034531995046813716
1104,0.0
1105,0.0
1106,0.0
1107,1.0
1108,25.0
1109,1.0
1110,1.0
340,19.85747773239625
2,4, 1, 4, 0,15, 0.00,60.00,Sunday
7,0.002867806295660269
8,83500.0
9,3.6
47,11.10611280866669
252,19.919998805805969
253,0.0035602451138681478
1104,0.0
1105,0.0
1106,0.0
1107,1.0
1108,25.0
1109,1.0
1110,1.0
340,20.42066537658267
2,4, 1, 4, 0,16, 0.00,60.00,Sunday
7,0.0028554796548935828
8,83300.0
9,7.2
47,10.00611280866669
252,19.887612491208424
253,0.0035430560927232747
1104,0.0
1105,0.0
1106,0.0
1107,1.0
1108,25.0
1109,1.0
1110,1.0
340,20.31471478687427
2,4, 1, 4, 0,17, 0.00,60.00,Sunday
7,0.003213601474780882
8,83000.0
9,0.0
47,7.206112808666692
252,19.79876882151096
253,0.0038665604602972746
1104,0.0
1105,0.0
1106,0.0
1107,1.0
1108,25.0
1109,1.0
1110,1.0
340,22.20029084677872
2,4, 1, 4, 0,18, 0.00,60.00,Sunday
7,0.0030598200113296626
8,83000.0
9,3.1
47,7.206112808666692
252,19.79222940868153
253,0.00382678087339974
1104,0.0
1105,0.0
1106,1.0
1107,1.0
1108,25.0
1109,1.0
1110,1.0
340,21.982219398678866
2,4, 1, 4, 0,19, 0.00,60.00,Sunday
7,0.0026221412810428434
8,83000.0
9,3.6
47,6.106112808666691
252,19.747733462220205
253,0.004135081988060221
1104,0.0
1105,0.0
1106,0.0
1107,1.0
1108,25.0
1109,1.0
1110,1.0
340,23.807132981332914
2,4, 1, 4, 0,20, 0.00,60.00,Sunday
7,0.002141306350780042
8,82900.0
9,2.6
47,7.206112808666692
252,19.77479351068019
253,0.003962508336732808
1104,0.0
1105,0.0
1106,0.0
1107,1.0
1108,25.0
1109,1.0
1110,1.0
340,22.75413398918799
2,4, 1, 4, 0,21, 0.00,60.00,Sunday
7,0.0020558052155928675
8,82900.0
9,4.1
47,6.106112808666691
252,19.74219600370848
253,0.003832179473868399
1104,0.0
1105,0.0
1106,0.0
1107,1.0
1108,25.0
1109,1.0
1110,1.0
340,22.054863342945649
2,4, 1, 4, 0,22, 0.00,60.00,Sunday
7,0.0019904196026927715
8,82700.0
9,3.1
47,5.606112808666691
252,19.723180443348423
253,0.003817225623256493
1104,0.0
1105,0.0
1106,0.0
1107,1.0
1108,25.0
1109,1.0
1110,1.0
340,21.94223450857266
2,4, 1, 4, 0,23, 0.00,60.00,Sunday
7,0.0020433430024558065
8,82600.0
9,3.1
47,5.006112808666692
252,19.705187061194335
253,0.003764722408784916
1104,0.0
1105,0.0
1106,0.0
1107,1.0
1108,25.0
1109,1.0
1110,1.0
340,21.64024306280878
2,4, 1, 4, 0,24, 0.00,60.00,Sunday
7,0.001947916611392546
8,82600.0
9,6.7
47,10.00611280866669
252,19.870897500890775
253,0.003418054096595974
1104,0.0
1105,0.0
1106,0.0
1107,1.0
1108,25.0
1109,1.0
1110,1.0
340,19.457323689388017
2,5, 1, 5, 0, 1, 0.00,60.00,Monday
7,0.0020483189058219219
8,82400.0
9,4.6
47,5.006112808666692
252,19.727607844673984
253,0.0034083103976508867
1104,0.0
1105,0.0
1106,0.0
1107,1.0
1108,25.0
1109,1.0
1110,1.0
340,19.528020417908946
2,5, 1, 5, 0, 2, 0.00,60.00,Monday
7,0.0024215318693176187
8,82400.0
9,6.2
47,10.60611280866669
252,19.8925304692919
253,0.003612720176570653
1104,0.0
1105,0.0
1106,0.0
1107,1.0
1108,25.0
1109,1.0
1110,1.0
340,20.481782600767969
2,5, 1, 5, 0, 3, 0.00,60.00,Monday
7,0.0025037906254838035
8,82400.0
9,6.7
47,11.10611280866669
252,19.914009601401504
253,0.003655215721296871
1104,0.0
1105,0.0
1106,0.0
1107,1.0
1108,25.0
1109,1.0
1110,1.0
340,20.693756444455187
2,5, 1, 5, 0, 4, 0.00,60.00,Monday
7,0.002496840660706383
8,82600.0
9,5.2
47,9.406112808666692
252,19.8630163694134
253,0.003702935402787869
1104,0.0
1105,0.0
1106,0.0
1107,1.0
1108,25.0
1109,1.0
1110,1.0
340,21.079739581891958
2,5, 1, 5, 0, 5, 0.00,60.00,Monday
7,0.002490785492768175
8,82800.0
9,3.6
47,9.406112808666692
252,19.858502739173745
253,0.0037582780688167726
1104,0.0
1105,0.0
1106,0.0
1107,1.0
1108,25.0
1109,1.0
1110,1.0
340,21.450696916157879
2,5, 1, 5, 0, 6, 0.00,60.00,Monday
7,0.00258324393103037
8,82700.0
9,4.6
47,9.406112808666692
252,19.857858108904769
253,0.003808657975553807
1104,0.0
1105,0.0
1106,0.0
1107,1.0
1108,25.0
1109,1.0
1110,1.0
340,21.71111067281189
2,5, 1, 5, 0, 7, 0.00,60.00,Monday
7,0.00276490663296874
8,82800.0
9,4.6
47,5.006112808666692
252,19.73173857621686
253,0.003486945541014976
1104,1.0
1105,0.0
1106,0.0
1107,1.0
1108,25.0
1109,1.0
1110,1.0
340,20.0678407105327
2,5, 1, 5, 0, 8, 0.00,60.00,Monday
7,0.0030590561911797424
8,82800.0
9,1.5
47,10.00611280866669
252,19.867540938781884
253,0.004283393588010882
1104,0.0
1105,0.0
1106,0.0
1107,1.0
1108,25.0
1109,1.0
1110,1.0
340,24.413422607711725
2,5, 1, 5, 0, 9, 0.00,60.00,Monday
7,0.003009087633025239
8,82900.0
9,4.1
47,8.906112808666692
252,19.84104930349742
253,0.004163722834054247
1104,0.0
1105,0.0
1106,0.0
1107,1.0
1108,25.0
1109,1.0
1110,1.0
340,23.803853365109796
2,5, 1, 5, 0,10, 0.00,60.00,Monday
7,0.002893725462152925
8,83000.0
9,4.6
47,12.806112808666692
252,19.962763970084
253,0.003836791632479463
1104,0.0
1105,0.0
1106,0.0
1107,1.0
1108,25.0
1109,1.0
1110,1.0
340,21.807484831496834
2,5, 1, 5, 0,11, 0.00,60.00,Monday
7,0.002561559540640642
8,82900.0
9,5.7
47,12.806112808666692
252,19.964621103891934
253,0.0035260780836972197
1104,0.0
1105,1.0
1106,0.0
1107,1.0
1108,25.0
1109,1.0
1110,1.0
340,20.024971878710745
2,5, 1, 5, 0,12, 0.00,60.00,Monday
7,0.0025665821471054859
8,83000.0
9,5.1
47,15.00611280866669
252,20.033140369205726
253,0.0034513576261356378
1104,0.0
1105,0.0
1106,0.0
1107,1.0
1108,25.0
1109,1.0
1110,1.0
340,19.543536368117296
2,5, 1, 5, 0,13, 0.00,60.00,Monday
7,0.0024686848941179687
8,83000.0
9,4.1
47,14.406112808666692
252,20.014551289142749
253,0.003349722457870113
1104,0.0
1105,0.0
1106,0.0
1107,1.0
1108,25.0
1109,1.0
1110,1.0
340,18.992954495623214
2,5, 1, 5, 0,14, 0.00,60.00,Monday
7,0.002555369207159765
8,83100.0
9,3.1
47,12.806112808666692
252,19.962365908151523
253,0.003374386089320643
1104,0.0
1105,0.0
1106,0.0
1107,1.0
1108,25.0
1109,1.0
1110,1.0
340,19.21712489597024
2,5, 1, 5, 0,15, 0.00,60.00,Monday
7,0.0033265276316270908
8,83100.0
9,2.6
47,10.00611280866669
252,19.862218883435206
253,0.0038904965634195146
1104,0.0
1105,0.0
1106,0.0
1107,1.0
1108,25.0
1109,1.0
1110,1.0
340,22.275946143292197
2,5, 1, 5, 0,16, 0.00,60.00,Monday
7,0.003212711918772427
8,83100.0
9,2.1
47,8.306112808666692
252,19.785612471851036
253,0.003956303944476904
1104,0.0
1105,0.0
1106,0.0
1107,1.0
1108,25.0
1109,1.0
1110,1.0
340,22.758251003735006
2,5, 1, 5, 0,17, 0.00,60.00,Monday
7,0.0034919267452326108
8,83100.0
9,2.6
47,5.606112808666691
252,19.663917360896805
253,0.00430615488422707
1104,0.0
1105,0.0
1106,0.0
1107,1.0
1108,25.0
1109,1.0
1110,1.0
340,24.944623902674935
2,5, 1, 5, 0,18, 0.00,60.00,Monday
7,0.00204933703432838
8,83100.0
9,2.6
47,5.606112808666691
252,19.644009809875504
253,0.0030040037371623356
1104,0.0
1105,0.0
1106,1.0
1107,1.0
1108,25.0
1109,1.0
1110,1.0
340,17.45923838521704
2,5, 1, 5, 0,19, 0.00,60.00,Monday
7,0.0019384139610349027
8,83200.0
9,4.1
47,3.906112808666691
252,19.559694892616727
253,0.0035432736417907917
1104,0.0
1105,0.0
1106,0.0
1107,1.0
1108,25.0
1109,1.0
1110,1.0
340,20.70885264041013
2,5, 1, 5, 0,20, 0.00,60.00,Monday
7,0.0020325875931150674
8,83200.0
9,4.1
47,3.306112808666691
252,19.511683157175896
253,0.0036123243157514877
1104,0.0
1105,0.0
1106,0.0
1107,1.0
1108,25.0
1109,1.0
1110,1.0
340,21.17319611223071
2,5, 1, 5, 0,21, 0.00,60.00,Monday
7,0.0021250663319854945
8,83200.0
9,4.6
47,1.7061128086666915
252,19.460112293685048
253,0.003677726252094901
1104,0.0
1105,0.0
1106,0.0
1107,1.0
1108,25.0
1109,1.0
1110,1.0
340,21.62352887204961
2,5, 1, 5, 0,22, 0.00,60.00,Monday
7,0.002154991451524072
8,83200.0
9,2.1
47,0.006112808666691415
252,19.410826678396803
253,0.0038525416970236834
1104,0.0
1105,0.0
1106,0.0
1107,1.0
1108,25.0
1109,1.0
1110,1.0
340,22.714585670049276
2,5, 1, 5, 0,23, 0.00,60.00,Monday
7,0.001953400992939222
8,83600.0
9,1.5
47,0.6061128086666914
252,19.46250143224185
253,0.0036895525741058264
1104,0.0
1105,0.0
1106,0.0
1107,1.0
1108,25.0
1109,1.0
1110,1.0
340,21.793704408834178
2,5, 1, 5, 0,24, 0.00,60.00,Monday
7,0.0018353017537658084
8,83100.0
9,3.1
47,0.006112808666691415
252,19.489694052202716
253,0.0034445602494589638
1104,0.0
1105,0.0
1106,0.0
1107,1.0
1108,25.0
1109,1.0
1110,1.0