Program Version,EnergyPlus, Version 8.9.0-497bb3e71c, YMD=2018.03.11 10:14
1,5,Environment Title[],Latitude[deg],Longitude[deg],Time Zone[],Elevation[m]
2,8,Day of Simulation[],Month[],Day of Month[],DST Indicator[1=yes 0=no],Hour[],StartMinute[],EndMinute[],DayType
3,5,Cumulative Day of Simulation[],Month[],Day of Month[],DST Indicator[1=yes 0=no],DayType  ! When Daily Report Variables Requested
4,2,Cumulative Days of Simulation[],Month[]  ! When Monthly Report Variables Requested
5,1,Cumulative Days of Simulation[] ! When Run Period Report Variables Requested
6,1,Calendar Year of Simulation[] ! When Annual Report Variables Requested
7,1,Environment,Site Outdoor Air Humidity Ratio [kgWater/kgDryAir] !Hourly
8,1,Environment,Site Outdoor Air Barometric Pressure [Pa] !Hourly
9,1,Environment,Site Wind Speed [m/s] !Hourly
47,1,LIVING,Zone Outdoor Air Drybulb Temperature [C] !Hourly
252,1,LIVING,Zone Mean Air Temperature [C] !Hourly
253,1,LIVING,Zone Mean Air Humidity Ratio [kgWater/kgDryAir] !Hourly
254,1,UNFINISHED ATTIC,Zone Mean Air Humidity Ratio [kgWater/kgDryAir] !Hourly
341,1,LIVING,Zone Air Relative Humidity [%] !Hourly
418,1,UNFINISHED ATTIC,Zone Air Temperature [C] !Hourly
521,1,RESIDENTIAL FURNACE GAS AND CENTRAL AC SUPPLY FAN,Fan Runtime Fraction [] !Hourly
522,11,RESIDENTIAL FURNACE GAS HEATING COIL,Heating Coil Heating Energy [J] !RunPeriod [Value,Min,Month,Day,Hour,Minute,Max,Month,Day,Hour,Minute]
599,11,RESIDENTIAL CENTRAL AC COOLING COIL,Cooling Coil Sensible Cooling Energy [J] !RunPeriod [Value,Min,Month,Day,Hour,Minute,Max,Month,Day,Hour,Minute]
600,11,RESIDENTIAL CENTRAL AC COOLING COIL,Cooling Coil Latent Cooling Energy [J] !RunPeriod [Value,Min,Month,Day,Hour,Minute,Max,Month,Day,Hour,Minute]
868,11,WATER USE CONNECTIONS 1,Water Use Connections Plant Hot Water Energy [J] !RunPeriod [Value,Min,Month,Day,Hour,Minute,Max,Month,Day,Hour,Minute]
1108,1,RES INFIL_1 BATH EXHAUST SCHEDULE,Schedule Value [] !Hourly
1109,1,RES INFIL_1 CLOTHES DRYER EXHAUST SCHEDULE,Schedule Value [] !Hourly
1110,1,RES INFIL_1 RANGE HOOD SCHEDULE,Schedule Value [] !Hourly
1111,1,RES NV_1 AVAIL SCHEDULE,Schedule Value [] !Hourly
1112,1,RES NV_1 TEMP SCHEDULE,Schedule Value [] !Hourly
1113,1,RESIDENTIAL CEILING FAN SCHEDULE,Schedule Value [] !Hourly
1114,1,ALWAYS ON DISCRETE,Schedule Value [] !Hourly
1115,1,NODE 17,System Node Temperature [C] !Hourly
1116,1,NODE 17,System Node Mass Flow Rate [kg/s] !Hourly
1117,1,NODE 17,System Node Humidity Ratio [kgWater/kgDryAir] !Hourly
1118,1,NODE 17,System Node Current Density Volume Flow Rate [m3/s] !Hourly
1119,1,NODE 20,System Node Temperature [C] !Hourly
1120,1,NODE 20,System Node Humidity Ratio [kgWater/kgDryAir] !Hourly
End of Data Dictionary
1,RUN PERIOD,  39.83,-104.65,  -7.00,1650.00
2,1, 1, 1, 0, 1, 0.00,60.00,Thursday
7,0.0007900529195083872
8,83700.0
9,0.0
47,-17.99389034319646
252,19.674647842784166
253,0.004160478259927254
254,0.0008056469567093551
1108,0.0
1109,0.0
1110,0.0
1111,1.0
1112,25.0
1113,1.0
1114,1.0
341,24.263971925829556
418,-3.753277723637372
521,0.17529219914044487
1115,46.566535556876818
1116,0.115341559372862
1117,0.004410673928903511
1118,0.12734336809795963
1119,19.6984994103782
1120,0.004270969266282744
2,1, 1, 1, 0, 2, 0.00,60.00,Thursday
7,0.0008821433256595779
8,83500.0
9,0.0
47,-16.59389034319646
252,19.67870569508279
253,0.003901279130876081
254,0.0008814063645771967
1108,0.0
1109,0.0
1110,0.0
1111,1.0
1112,25.0
1113,1.0
1114,1.0
341,22.70175657680372
418,-5.9200137071485019
521,0.1947442655891061
1115,46.57769585132257
1116,0.12814094056731843
1117,0.004052912939741423
1118,0.14173735550749379
1119,19.678177649301654
1120,0.003954891516085106
2,1, 1, 1, 0, 3, 0.00,60.00,Thursday
7,0.0010208919153051238
8,83400.0
9,0.0
47,-15.293890343196459
252,19.700835102999009
253,0.0037961395209778565
254,0.0010168862198709126
1108,0.0
1109,0.0
1110,0.0
1111,1.0
1112,25.0
1113,1.0
1114,1.0
341,22.037006859621699
418,-7.49412006157918
521,0.21645295425193318
1115,46.57415002638244
1116,0.14242517006862266
1117,0.0038795408230719006
1118,0.15768067604987613
1119,19.69707046421574
1120,0.0038261776400369529
2,1, 1, 1, 0, 4, 0.00,60.00,Thursday
7,0.0011789686367221452
8,83100.0
9,0.0
47,-14.393890343196459
252,19.716104802918207
253,0.0037650683208537846
254,0.001173403301755908
1108,0.0
1109,0.0
1110,0.0
1111,1.0
1112,25.0
1113,1.0
1114,1.0
341,21.758474705727889
418,-8.584165455286243
521,0.2375122813017511
1115,46.5605113373569
1116,0.15628212225006547
1117,0.0038048413243857148
1118,0.17361837774646439
1119,19.712171067876324
1120,0.003778709552726224
2,1, 1, 1, 0, 5, 0.00,60.00,Thursday
7,0.0012758496249545763
8,83400.0
9,0.0
47,-12.993890343196459
252,19.733622307165676
253,0.0037592756384423437
254,0.0012714497260210875
1108,0.0
1109,0.0
1110,0.0
1111,1.0
1112,25.0
1113,1.0
1114,1.0
341,21.77993430265782
418,-9.253097477480136
521,0.25802458623963117
1115,46.540009925881978
1116,0.16977913609020313
1117,0.0037732616463320817
1118,0.1879126066903327
1119,19.727545035602675
1120,0.003763493267302314
2,1, 1, 1, 0, 6, 0.00,60.00,Thursday
7,0.0015577134825634503
8,83000.0
9,0.0
47,-11.093890343196458
252,19.753719874167964
253,0.003797617388470668
254,0.0015306826207170659
1108,0.0
1109,0.0
1110,0.0
1111,1.0
1112,25.0
1113,1.0
1114,1.0
341,21.867909167560798
418,-9.402948279104207
521,0.2736645007109167
1115,46.53249960379017
1116,0.1800701366733548
1117,0.0037597692247762148
1118,0.20025422997695387
1119,19.7343366176072
1120,0.003752415434273875
2,1, 1, 1, 0, 7, 0.00,60.00,Thursday
7,0.0016867159050986186
8,82900.0
9,0.0
47,-9.693890343196458
252,19.77906811173779
253,0.003354910073175603
254,0.001684664226030824
1108,1.0
1109,0.0
1110,0.0
1111,1.0
1112,25.0
1113,1.0
1114,1.0
341,19.278691955397205
418,-9.277168760508964
521,0.4534243658426137
1115,46.50172528052959
1116,0.29835140223231618
1117,0.0037532025228326356
1118,0.3321584324715603
1119,19.753719874167964
1120,0.003797617388470668
2,1, 1, 1, 0, 8, 0.00,60.00,Thursday
7,0.0019662875066010774
8,82800.0
9,1.4
47,-7.693890343196458
252,19.790993954083697
253,0.0038825440979742135
254,0.0019497429565097787
1108,0.0
1109,0.0
1110,0.0
1111,1.0
1112,25.0
1113,1.0
1114,1.0
341,22.248419572236928
418,-6.656685673913014
521,0.3756368293615219
1115,46.44203298621053
1116,0.24716751725912346
1117,0.003778632653054447
1118,0.2754668291188185
1119,19.789653971500369
1120,0.0038068362370153438
2,1, 1, 1, 0, 9, 0.00,60.00,Thursday
7,0.002240381823690946
8,82900.0
9,1.3
47,-5.893890343196458
252,19.807089974994967
253,0.0038536841509881228
254,0.0022213500907877438
1108,0.0
1109,0.0
1110,0.0
1111,1.0
1112,25.0
1113,1.0
1114,1.0
341,22.088758643329216
418,-6.020371927397866
521,0.3410791763665507
1115,46.402953807447889
1116,0.2244287210990463
1117,0.0038369189026920826
1118,0.24981557174459893
1119,19.801465365554294
1120,0.0038617585020582197
2,1, 1, 1, 0,10, 0.00,60.00,Thursday
7,0.0025375255411263016
8,82700.0
9,1.7
47,-2.193890343196458
252,19.841823739505626
253,0.0039151760827543179
254,0.0025239990380937504
1108,0.0
1109,0.0
1110,0.0
1111,1.0
1112,25.0
1113,1.0
1114,1.0
341,22.336705647268397
418,-2.1825528259432636
521,0.3306291124318269
1115,46.362781492431988
1116,0.21755262121732
1117,0.0038983035631192598
1118,0.24274059896731499
1119,19.839123742705998
1120,0.0039078492990984449
2,1, 1, 1, 0,11, 0.00,60.00,Thursday
7,0.0025627953819398
8,82400.0
9,1.7
47,1.4061096568035423
252,19.874829371884905
253,0.004006101633414534
254,0.0025607678034633245
1108,0.0
1109,1.0
1110,0.0
1111,1.0
1112,25.0
1113,1.0
1114,1.0
341,22.722668224898599
418,2.81093667762044
521,0.317553394672051
1115,46.35034944735828
1116,0.20894885171857803
1117,0.0039833510863728949
1118,0.23401220121870504
1119,19.872873318089796
1120,0.003997550732891475
2,1, 1, 1, 0,12, 0.00,60.00,Thursday
7,0.0023812805279191464
8,82300.0
9,4.6
47,2.806109656803542
252,19.88747335076242
253,0.003981993087825698
254,0.0023863018378825898
1108,0.0
1109,0.0
1110,0.0
1111,1.0
1112,25.0
1113,1.0
1114,1.0
341,22.541723751999688
418,7.517410175068182
521,0.296632014898749
1115,46.362722866487249
1116,0.19518266828818404
1117,0.003985636540352689
1118,0.2188696488413715
1119,19.886676662225285
1120,0.00398401306419431
2,1, 1, 1, 0,13, 0.00,60.00,Thursday
7,0.0021572495768384786
8,82300.0
9,7.2
47,4.406109656803543
252,19.900494395024795
253,0.003868558092572406
254,0.0021613360450885128
1108,0.0
1109,0.0
1110,0.0
1111,1.0
1112,25.0
1113,1.0
1114,1.0
341,21.885860416235976
418,10.513104263465426
521,0.2704288754848117
1115,46.39461476664303
1116,0.17794110833692493
1117,0.003909398378758587
1118,0.19953129991899549
1119,19.899175232881399
1120,0.0038860859800103565
2,1, 1, 1, 0,14, 0.00,60.00,Thursday
7,0.002175373442187611
8,82200.0
9,8.2
47,3.306109656803542
252,19.889949264194209
253,0.0037985030031128174
254,0.002175440360944641
1108,0.0
1109,0.0
1110,0.0
1111,1.0
1112,25.0
1113,1.0
1114,1.0
341,21.479864197215858
418,12.015655470560468
521,0.24258681887001197
1115,46.431496165341808
1116,0.15962114748387203
1117,0.0038426849635778638
1118,0.17920784274990946
1119,19.891738060963009
1120,0.003816994449701523
2,1, 1, 1, 0,15, 0.00,60.00,Thursday
7,0.00214664894324141
8,82200.0
9,7.7
47,3.906109656803542
252,19.89242235595581
253,0.003754329513879904
254,0.002147549643294386
1108,0.0
1109,0.0
1110,0.0
1111,1.0
1112,25.0
1113,1.0
1114,1.0
341,21.228324711796124
418,12.53469296618065
521,0.2158232374153864
1115,46.45719572311381
1116,0.14201081893236673
1117,0.003814627558561737
1118,0.15944226578452676
1119,19.891128669805047
1120,0.0037806255029266277
2,1, 1, 1, 0,16, 0.00,60.00,Thursday
7,0.0019592080809646514
8,82100.0
9,6.2
47,2.2061096568035425
252,19.87546043418316
253,0.003682977103088628
254,0.00196165066307569
1108,0.0
1109,0.0
1110,0.0
1111,1.0
1112,25.0
1113,1.0
1114,1.0
341,20.823793049362029
418,11.945323180509672
521,0.1936680551196002
1115,46.49464594379911
1116,0.1274327984230878
1117,0.00376955609288126
1118,0.14325556824644659
1119,19.884249364312497
1120,0.0037261294703830425
2,1, 1, 1, 0,17, 0.00,60.00,Thursday
7,0.0023914868104691346
8,82000.0
9,3.6
47,-0.5938903431964576
252,19.845256188911326
253,0.003801522830099171
254,0.002383368427617862
1108,0.0
1109,0.0
1110,0.0
1111,1.0
1112,25.0
1113,1.0
1114,1.0
341,21.50405319958856
418,10.01135269352556
521,0.16999460268013887
1115,46.53426417833242
1116,0.11185576228858739
1117,0.0037588611061696007
1118,0.1259111982834921
1119,19.849630447972705
1120,0.0037787653832869838
2,1, 1, 1, 0,18, 0.00,60.00,Thursday
7,0.002400630504535148
8,82100.0
9,6.2
47,-2.193890343196458
252,19.829341099795525
253,0.0035410524679807926
254,0.002400003093265668
1108,0.0
1109,0.0
1110,1.0
1111,1.0
1112,25.0
1113,1.0
1114,1.0
341,20.0832017910772
418,7.478383854595217
521,0.20399534866174319
1115,46.57402790347037
1116,0.13422811588212486
1117,0.003629149595279455
1118,0.15089824650062867
1119,19.831126012043428
1120,0.0035794492236327355
2,1, 1, 1, 0,19, 0.00,60.00,Thursday
7,0.0020766385637436097
8,82100.0
9,5.7
47,-4.993890343196457
252,19.791212340259649
253,0.004204234765351225
254,0.002081813742427732
1108,0.0
1109,0.0
1110,0.0
1111,1.0
1112,25.0
1113,1.0
1114,1.0
341,23.875385719785187
418,5.416046329075442
521,0.14524393121690883
1115,46.5664355079019
1116,0.09556992038522302
1117,0.0038996701178731624
1118,0.10748288172386297
1119,19.796747547401627
1120,0.004070431116301612
2,1, 1, 1, 0,20, 0.00,60.00,Thursday
7,0.0018849892779124018
8,82100.0
9,5.2
47,-5.593890343196457
252,19.777436662747826
253,0.004479370001547037
254,0.0018887046662868985
1108,0.0
1109,0.0
1110,0.0
1111,1.0
1112,25.0
1113,1.0
1114,1.0
341,25.448592753881976
418,2.6950609591968748
521,0.11885628399076294
1115,46.546834568787108
1116,0.07820695503839602
1117,0.004317223991230364
1118,0.08800888509801228
1119,19.778833353968879
1120,0.004435182027315976
2,1, 1, 1, 0,21, 0.00,60.00,Thursday
7,0.0017797201039779479
8,82000.0
9,2.1
47,-6.093890343196457
252,19.771114601453335
253,0.004578413786959579
254,0.0017828496885199028
1108,0.0
1109,0.0
1110,0.0
1111,1.0
1112,25.0
1113,1.0
1114,1.0
341,25.98580404251185
418,0.8409314950057184
521,0.11208996343607224
1115,46.53894204588503
1116,0.0737547434293136
1117,0.004492604188121712
1118,0.0831210992658639
1119,19.772032466194159
1120,0.004554680576717715
2,1, 1, 1, 0,22, 0.00,60.00,Thursday
7,0.0017775461620338847
8,82100.0
9,2.6
47,-6.093890343196457
252,19.772846367361074
253,0.004726178595887801
254,0.0017779217343162613
1108,0.0
1109,0.0
1110,0.0
1111,1.0
1112,25.0
1113,1.0
1114,1.0
341,26.84796712038463
418,-0.8263134263768251
521,0.11681388654862587
1115,46.53321928184611
1116,0.0768630657667092
1117,0.00462575484416532
1118,0.08653548721687078
1119,19.77256018080502
1120,0.004689571399380988
2,1, 1, 1, 0,23, 0.00,60.00,Thursday
7,0.0015232452444255954
8,82300.0
9,4.1
47,-6.093890343196457
252,19.776918375885104
253,0.004639498864532929
254,0.0015292730580255155
1108,0.0
1109,0.0
1110,0.0
1111,1.0
1112,25.0
1113,1.0
1114,1.0
341,26.416772543078048
418,-1.938466641689402
521,0.13058160081904239
1115,46.531836887730197
1116,0.08592216617583545
1117,0.00467244836572722
1118,0.0965062772678663
1119,19.775876220391106
1120,0.004665279297147058
2,1, 1, 1, 0,24, 0.00,60.00,Thursday
7,0.0015293264799179036
8,81900.0
9,8.8
47,-4.993890343196457
252,19.791838097972339
253,0.004537964441500951
254,0.001529142193021207
1108,0.0
1109,0.0
1110,0.0
1111,1.0
1112,25.0
1113,1.0
1114,1.0
341,25.693437100620327
418,-2.3374517285077465
521,0.15275289118691214
1115,46.53363625667781
1116,0.1005107857315164
1117,0.00465430767155357
1118,0.11344067842493919
1119,19.78407620989848
1120,0.004596089303539863
2,2, 1, 2, 0, 1, 0.00,60.00,Friday
7,0.0014680090389020964
8,81900.0
9,8.8
47,-4.993890343196457
252,19.797879465005026
253,0.00443099408602028
254,0.001470721734361792
1108,0.0
1109,0.0
1110,0.0
1111,1.0
1112,25.0
1113,1.0
1114,1.0
341,25.082662634532939
418,-2.116103174358407
521,0.17653953628585318
1115,46.53901170357913
1116,0.1161623021789912
1117,0.004568907415078131
1118,0.13108997223402778
1119,19.79244215203282
1120,0.004523249140455105
2,2, 1, 2, 0, 2, 0.00,60.00,Friday
7,0.0013344405741135323
8,82000.0
9,7.2
47,-5.593890343196457
252,19.79663405112242
253,0.004366704639516079
254,0.0013374157953895546
1108,0.0
1109,0.0
1110,0.0
1111,1.0
1112,25.0
1113,1.0
1114,1.0
341,24.75337197933315
418,-2.1703835520884686
521,0.1951002938242143
1115,46.54124960228704
1116,0.12837520570871953
1117,0.004527894425158696
1118,0.14468718718070285
1119,19.797879465005026
1120,0.00443099408602028
2,2, 1, 2, 0, 3, 0.00,60.00,Friday
7,0.001253492936868907
8,81900.0
9,7.2
47,-4.993890343196457
252,19.8038037959501
253,0.004284523405999843
254,0.0012537885038111387
1108,0.0
1109,0.0
1110,0.0
1111,1.0
1112,25.0
1113,1.0
1114,1.0
341,24.25028951659974
418,-2.0947290905236319
521,0.20915316713955676
1115,46.54447976338208
1116,0.1376219396182087
1117,0.004436683499763463
1118,0.15527720404520205
1119,19.79663405112242
1120,0.004366704639516079
2,2, 1, 2, 0, 4, 0.00,60.00,Friday
7,0.0012678777009577935
8,81900.0
9,6.7
47,-6.693890343196458
252,19.79216117540632
253,0.004230882130152778
254,0.0012665392407930669
1108,0.0
1109,0.0
1110,0.0
1111,1.0
1112,25.0
1113,1.0
1114,1.0
341,23.966037233128799
418,-2.226646362952916
521,0.21967401598485748
1115,46.5443938532095
1116,0.14454461568533309
1117,0.00436908870131888
1118,0.16307033526875756
1119,19.8038037959501
1120,0.004284523405999843
2,2, 1, 2, 0, 5, 0.00,60.00,Friday
7,0.0012411706929133452
8,82400.0
9,3.6
47,-5.593890343196457
252,19.800618286956206
253,0.004173495170181101
254,0.0012436225116024805
1108,0.0
1109,0.0
1110,0.0
1111,1.0
1112,25.0
1113,1.0
1114,1.0
341,23.77499619535553
418,-2.4652196288752195
521,0.22764433189646775
1115,46.54394989656329
1116,0.1497890513786916
1117,0.0042896058756958089
1118,0.1679399764013863
1119,19.79216117540632
1120,0.004230882130152778
2,2, 1, 2, 0, 6, 0.00,60.00,Friday
7,0.001251833295380643
8,81900.0
9,3.1
47,-6.093890343196457
252,19.798903521019694
253,0.004136858087886109
254,0.0012504780617591464
1108,0.0
1109,0.0
1110,0.0
1111,1.0
1112,25.0
1113,1.0
1114,1.0
341,23.427150434381266
418,-2.7316071017966645
521,0.23161635384464367
1115,46.540644314917717
1116,0.15240262578538145
1117,0.004232621219495808
1118,0.17189599886474014
1119,19.800618286956206
1120,0.004173495170181101
2,2, 1, 2, 0, 7, 0.00,60.00,Friday
7,0.0011904699506903492
8,81900.0
9,3.1
47,-4.393890343196458
252,19.82066971362449
253,0.003420045099579723
254,0.0011947147048416854
1108,1.0
1109,0.0
1110,0.0
1111,1.0
1112,25.0
1113,1.0
1114,1.0
341,19.363852341670304
418,-2.8135720577845748
521,0.3655893285565661
1115,46.5355709763639
1116,0.24055630229162126
1117,0.004176604012942724
1118,0.27129657717253766
1119,19.798903521019694
1120,0.004136858087886109
2,2, 1, 2, 0, 8, 0.00,60.00,Friday
7,0.0012510706447046814
8,82000.0
9,1.5
47,-2.7938903431964579
252,19.829453022130044
253,0.00384359894818923
254,0.0012466863145474406
1108,0.0
1109,0.0
1110,0.0
1111,1.0
1112,25.0
1113,1.0
1114,1.0
341,21.76186083946839
418,-1.2718314012115704
521,0.29139978675067176
1115,46.549409014828068
1116,0.19173988328946149
1117,0.003837850400928707
1118,0.21587078361521234
1119,19.827959254681625
1120,0.003774029757739259
2,2, 1, 2, 0, 9, 0.00,60.00,Friday
7,0.0014476314076101044
8,82300.0
9,2.1
47,-1.6938903431964577
252,19.838422485305548
253,0.0037260967977127106
254,0.0014327242930824347
1108,0.0
1109,0.0
1110,0.0
1111,1.0
1112,25.0
1113,1.0
1114,1.0
341,21.16602502913066
418,-1.2139441455407252
521,0.2619855824476842
1115,46.54400961592193
1116,0.17238545560440345
1117,0.003828299959090846
1118,0.19336687553526719
1119,19.829632318315004
1120,0.0038374602422795508
2,2, 1, 2, 0,10, 0.00,60.00,Friday
7,0.001625860099397257
8,82400.0
9,2.1
47,2.2061096568035425
252,19.875602078190576
253,0.003535494220717064
254,0.0016183860195668149
1108,0.0
1109,0.0
1110,0.0
1111,1.0
1112,25.0
1113,1.0
1114,1.0
341,20.06746634959603
418,1.7446423413737589
521,0.2547561236092525
1115,46.536697986221849
1116,0.167628500874327
1117,0.003622941294692554
1118,0.1877368188025871
1119,19.87183605376099
1120,0.0035675633402845539
2,2, 1, 2, 0,11, 0.00,60.00,Friday
7,0.001721383574473831
8,82400.0
9,2.6
47,5.606109656803542
252,19.90795256729372
253,0.003449223509620268
254,0.0017176286109924183
1108,0.0
1109,1.0
1110,0.0
1111,1.0
1112,25.0
1113,1.0
1114,1.0
341,19.541302908554888
418,6.214511661781672
521,0.24663585917370196
1115,46.5493402780946
1116,0.1622853996575639
1117,0.0034808412736134464
1118,0.18171868082866364
1119,19.905778488428138
1120,0.003459105001542217
2,2, 1, 2, 0,12, 0.00,60.00,Friday
7,0.0012938736167089427
8,82400.0
9,2.1
47,8.906109656803542
252,19.937921570571264
253,0.0031925707212582556
254,0.001311313637035232
1108,0.0
1109,0.0
1110,0.0
1111,1.0
1112,25.0
1113,1.0
1114,1.0
341,18.06103647494178
418,10.88589042855447
521,0.23160121916014318
1115,46.5797151081305
1116,0.1523926672240795
1117,0.003261455068761998
1118,0.17059767226178045
1119,19.936034397404965
1120,0.003217176837996909
2,2, 1, 2, 0,13, 0.00,60.00,Friday
7,0.001427780665668024
8,82400.0
9,2.6
47,9.406109656803542
252,19.94238197887751
253,0.0031058679409111096
254,0.0014237536447339677
1108,0.0
1109,0.0
1110,0.0
1111,1.0
1112,25.0
1113,1.0
1114,1.0
341,17.568180063615384
418,14.477406887380563
521,0.2109387137634137
1115,46.61565357209672
1116,0.13879682208838413
1117,0.0031430776519469655
1118,0.15536569603094159
1119,19.942006400012106
1120,0.003117969455545275
2,2, 1, 2, 0,14, 0.00,60.00,Friday
7,0.0016982862647897939
8,82300.0
9,2.6
47,9.406109656803542
252,19.941439438421356
253,0.003131645481803572
254,0.0016895016407503848
1108,0.0
1109,0.0
1110,0.0
1111,1.0
1112,25.0
1113,1.0
1114,1.0
341,17.692810631349859
418,16.953803957793835
521,0.18636389407991689
1115,46.65148198141668
1116,0.12262668994616363
1117,0.0031273443321181489
1118,0.13744397710746354
1119,19.94154539205697
1120,0.003128180872315744
2,2, 1, 2, 0,15, 0.00,60.00,Friday
7,0.0023288222482894889
8,82300.0
9,3.1
47,10.006109656803542
252,19.945567330578965
253,0.0033261412861247529
254,0.0023109673104031636
1108,0.0
1109,0.0
1110,0.0
1111,1.0
1112,25.0
1113,1.0
1114,1.0
341,18.780969501498015
418,18.412305608110765
521,0.16112483180552515
1115,46.68090182424806
1116,0.10601948886070792
1117,0.0032081050471345704
1118,0.11885636844644732
1119,19.944729668135908
1120,0.0032710915115834978
2,2, 1, 2, 0,16, 0.00,60.00,Friday
7,0.0020060060358028945
8,82300.0
9,3.1
47,7.806109656803542
252,19.92400369837377
253,0.003317218361830888
254,0.002011110044446366
1108,0.0
1109,0.0
1110,0.0
1111,1.0
1112,25.0
1113,1.0
1114,1.0
341,18.755936092706283
418,18.05485907021485
521,0.13878170567813073
1115,46.70195589285624
1116,0.09131780206896749
1117,0.0032786021872518208
1118,0.10239287510252633
1119,19.93517404224791
1120,0.00331537335614661
2,2, 1, 2, 0,17, 0.00,60.00,Friday
7,0.0019393526558002066
8,82100.0
9,2.6
47,6.706109656803543
252,19.909385647488194
253,0.0034045857909251436
254,0.0019413422251712586
1108,0.0
1109,0.0
1110,0.0
1111,1.0
1112,25.0
1113,1.0
1114,1.0
341,19.217857334396144
418,15.935935540762099
521,0.11480009871386449
1115,46.738342822491308
1116,0.07553800150117746
1117,0.003362212651097505
1118,0.08492664351862545
1119,19.911231218642429
1120,0.003388945548878184
2,2, 1, 2, 0,18, 0.00,60.00,Friday
7,0.0019892992189000167
8,82100.0
9,3.6
47,5.006109656803543
252,19.891602361839884
253,0.00310576832855377
254,0.0019883860269856495
1108,0.0
1109,0.0
1110,1.0
1111,1.0
1112,25.0
1113,1.0
1114,1.0
341,17.55881345643627
418,13.192681423004922
521,0.1273154485448119
1115,46.77454827839458
1116,0.08377305116497787
1117,0.003205924807906826
1118,0.0941723532928271
1119,19.89339261837817
1120,0.003143294824118403
2,2, 1, 2, 0,19, 0.00,60.00,Friday
7,0.001956798128946613
8,82300.0
9,3.6
47,1.1061096568035425
252,19.840919920185337
253,0.00416218557602351
254,0.0019573629052744227
1108,0.0
1109,0.0
1110,0.0
1111,1.0
1112,25.0
1113,1.0
1114,1.0
341,23.622536447139276
418,10.807241482646564
521,0.07825400757350994
1115,46.759649773962127
1116,0.051490821068841566
1117,0.0036650858144729599
1118,0.05778175868334713
1119,19.84732626106841
1120,0.003985293456386634
2,2, 1, 2, 0,20, 0.00,60.00,Friday
7,0.001995061828540745
8,82200.0
9,3.6
47,0.006109656803542354
252,19.818718489112955
253,0.004595668716257521
254,0.001994317328743969
1108,0.0
1109,0.0
1110,0.0
1111,1.0
1112,25.0
1113,1.0
1114,1.0
341,26.06935588126213
418,8.03438468859769
521,0.056066462508566897
1115,46.73269086972513
1116,0.03689150598810725
1117,0.004257184142202941
1118,0.04148486096157126
1119,19.820960422318234
1120,0.0045324403783412359
2,2, 1, 2, 0,21, 0.00,60.00,Friday
7,0.001853206380574381
8,82200.0
9,4.1
47,-1.6938903431964577
252,19.79644493996183
253,0.004682047684166633
254,0.0018560098944482883
1108,0.0
1109,0.0
1110,0.0
1111,1.0
1112,25.0
1113,1.0
1114,1.0
341,26.592582276068847
418,5.784427462632133
521,0.050217554178692228
1115,46.72155728920466
1116,0.0330429479193243
1117,0.0045267887560508
1118,0.03717182148357778
1119,19.79925314392476
1120,0.004662333758375608
2,2, 1, 2, 0,22, 0.00,60.00,Friday
7,0.0016106113482938503
8,82100.0
9,2.1
47,-1.0938903431964578
252,19.803522455461079
253,0.004726048873752794
254,0.0016177874321300335
1108,0.0
1109,0.0
1110,0.0
1111,1.0
1112,25.0
1113,1.0
1114,1.0
341,26.79620337061461
418,3.78579691164817
521,0.053874966199363816
1115,46.71833847759781
1116,0.03544951026380902
1117,0.004652367686918533
1118,0.03993527121582543
1119,19.802504881135908
1120,0.004714883520162298
2,2, 1, 2, 0,23, 0.00,60.00,Friday
7,0.0014489606977723525
8,82400.0
9,0.0
47,0.6061096568035423
252,19.828582041592584
253,0.004586607602088379
254,0.001457571953335237
1108,0.0
1109,0.0
1110,0.0
1111,1.0
1112,25.0
1113,1.0
1114,1.0
341,26.06587495474918
418,2.075996302454502
521,0.06635442674824088
1115,46.722937739217687
1116,0.04366094492489363
1117,0.0046484176450951359
1118,0.04900709732987971
1119,19.824358346417154
1120,0.004615792717302578
2,2, 1, 2, 0,24, 0.00,60.00,Friday
7,0.0014852911409678346
8,82100.0
9,2.6
47,0.006109656803542354
252,19.82890447045758
253,0.004437755340202782
254,0.0014850078179354495
1108,0.0
1109,0.0
1110,0.0
1111,1.0
1112,25.0
1113,1.0
1114,1.0
341,25.133576433614708
418,0.9067651106874367
521,0.08666365052694816
1115,46.73211270426927
1116,0.05702433218214223
1117,0.004566805723329052
1118,0.06423415339957622
1119,19.82881650385817
1120,0.0044890781633271669
2,3, 1, 3, 0, 1, 0.00,60.00,Saturday
7,0.001457500543868354
8,82100.0
9,3.6
47,-0.5938903431964576
252,19.82774070162786
253,0.0043095177317625699
254,0.0014581581406387552
1108,0.0
1109,0.0
1110,0.0
1111,1.0
1112,25.0
1113,1.0
1114,1.0
341,24.414052799789635
418,0.29464551241920719
521,0.10909022452058892
1115,46.74220560258738
1116,0.0717809273329904
1117,0.0044584270654277409
1118,0.08084505024523854
1119,19.828132485170018
1120,0.004369262548762767
2,3, 1, 3, 0, 2, 0.00,60.00,Saturday
7,0.001457500543868354
8,82100.0
9,5.2
47,-0.5938903431964576
252,19.831896593459505
253,0.00420890392586269
254,0.00145658308620999
1108,0.0
1109,0.0
1110,0.0
1111,1.0
1112,25.0
1113,1.0
1114,1.0
341,23.84176001216747
418,0.11697160656171099
521,0.12873913006613256
1115,46.750883252089057
1116,0.08470982785854818
1117,0.004323662602419901
1118,0.09538860759483149
1119,19.82772911983112
1120,0.004258520889202188
2,3, 1, 3, 0, 3, 0.00,60.00,Saturday
7,0.0014813459927190882
8,82200.0
9,5.2
47,-1.0938903431964578
252,19.830859540918035
253,0.004175310868749703
254,0.001480463168732119
1108,0.0
1109,0.0
1110,0.0
1111,1.0
1112,25.0
1113,1.0
1114,1.0
341,23.68307004224163
418,0.15598810069337955
521,0.14431495055547076
1115,46.756190547900107
1116,0.09495865486032849
1117,0.004269338903328691
1118,0.1067918568157071
1119,19.831896593459505
1120,0.00420890392586269
2,3, 1, 3, 0, 4, 0.00,60.00,Saturday
7,0.001445870489396135
8,82400.0
9,5.7
47,-1.6938903431964577
252,19.827431712068223
253,0.004123312507542306
254,0.001447783517606624
1108,0.0
1109,0.0
1110,0.0
1111,1.0
1112,25.0
1113,1.0
1114,1.0
341,23.451964312793668
418,0.04031663796092697
521,0.1564476521072467
1115,46.760028528451339
1116,0.10294192350120038
1117,0.004209401747118778
1118,0.11547929166870492
1119,19.830859540918035
1120,0.004175310868749703
2,3, 1, 3, 0, 5, 0.00,60.00,Saturday
7,0.0014388694491940776
8,82800.0
9,6.2
47,-1.6938903431964577
252,19.828677556806558
253,0.004097067147173849
254,0.0014382913944141272
1108,0.0
1109,0.0
1110,0.0
1111,1.0
1112,25.0
1113,1.0
1114,1.0
341,23.414982331924457
418,0.019500169118288676
521,0.16673980576196344
1115,46.761146128169688
1116,0.10971411905617204
1117,0.004177521921041874
1118,0.12247589844159013
1119,19.827431712068223
1120,0.004123312507542306
2,3, 1, 3, 0, 6, 0.00,60.00,Saturday
7,0.0013897297335599493
8,82600.0
9,7.2
47,-1.0938903431964578
252,19.835596316435895
253,0.004059937996967816
254,0.0013912613234987395
1108,0.0
1109,0.0
1110,0.0
1111,1.0
1112,25.0
1113,1.0
1114,1.0
341,23.138182726577875
418,0.19328648403069002
521,0.17213396719891914
1115,46.762125068757729
1116,0.11326345550524551
1117,0.004128382598742249
1118,0.12673467503025213
1119,19.828677556806558
1120,0.004097067147173849
2,3, 1, 3, 0, 7, 0.00,60.00,Saturday
7,0.0014723686488445219
8,82700.0
9,5.7
47,-1.0938903431964578
252,19.844677395070705
253,0.003370813604500203
254,0.0014681196074615483
1108,1.0
1109,0.0
1110,0.0
1111,1.0
1112,25.0
1113,1.0
1114,1.0
341,19.244373174704465
418,0.4032462703337564
521,0.286642171623521
1115,46.76063159494828
1116,0.18860939174247699
1117,0.004097708163725629
1118,0.2107755327084058
1119,19.835596316435895
1120,0.004059937996967816
2,3, 1, 3, 0, 8, 0.00,60.00,Saturday
7,0.0015329507657114506
8,82800.0
9,6.7
47,-0.5938903431964576
252,19.84184052006155
253,0.0038840904437359
254,0.0015315691720510768
1108,0.0
1109,0.0
1110,0.0
1111,1.0
1112,25.0
1113,1.0
1114,1.0
341,22.18719581237879
418,1.9727671222350152
521,0.22034662698675354
1115,46.7804372982112
1116,0.14498719100922342
1117,0.0038272075170312895
1118,0.1617710966133212
1119,19.842328316862966
1120,0.003791513108970258
2,3, 1, 3, 0, 9, 0.00,60.00,Saturday
7,0.001453997299339283
8,83000.0
9,4.6
47,3.306109656803542
252,19.875329126324666
253,0.0037610344577473496
254,0.0014588987762681374
1108,0.0
1109,0.0
1110,0.0
1111,1.0
1112,25.0
1113,1.0
1114,1.0
341,21.495745693888769
418,2.172123389826507
521,0.19595440260919767
1115,46.77293663374853
1116,0.12893720584116759
1117,0.0038958806975965167
1118,0.14352885884867193
1119,19.841750614262197
1120,0.003926277613094052
2,3, 1, 3, 0,10, 0.00,60.00,Saturday
7,0.001568059695277626
8,83200.0
9,5.2
47,5.606109656803542
252,19.902380864645747
253,0.003534138245910754
254,0.0015657736670049302
1108,0.0
1109,0.0
1110,0.0
1111,1.0
1112,25.0
1113,1.0
1114,1.0
341,20.220938906561807
418,4.417787619566884
521,0.19153336106271605
1115,46.78038618745962
1116,0.12602817835150249
1117,0.003667228967634358
1118,0.13990550687918555
1119,19.898952361434959
1120,0.0035810462792309806
2,3, 1, 3, 0,11, 0.00,60.00,Saturday
7,0.0022528855757041439
8,83500.0
9,1.5
47,6.106109656803542
252,19.908163452042737
253,0.0037020146393647649
254,0.002215908249313835
1108,0.0
1109,1.0
1110,0.0
1111,1.0
1112,25.0
1113,1.0
1114,1.0
341,21.244588549007195
418,8.036578525485944
521,0.1860898401581114
1115,46.78682182358678
1116,0.12244636357198213
1117,0.0036661556132914108
1118,0.1354434164443415
1119,19.907716316210249
1120,0.0036847173215400527
2,3, 1, 3, 0,12, 0.00,60.00,Saturday
7,0.001616514110486632
8,83300.0
9,7.7
47,6.706109656803543
252,19.91358662005992
253,0.0034461702431362536
254,0.0016260799301063289
1108,0.0
1109,0.0
1110,0.0
1111,1.0
1112,25.0
1113,1.0
1114,1.0
341,19.730410339414349
418,11.404404420483616
521,0.17614590427599736
1115,46.808384502687527
1116,0.11590329390561409
1117,0.00352447668094965
1118,0.12849320844087104
1119,19.913129086191817
1120,0.0034769208903498609